integrator              = sd
ld_seed                 = -1
dt                      = 0.001
nsteps                  = 200000000
nstxtcout               = 50000
nstxout                 = 500000
nstvout                 = 500000
nstfout                 = 500000
nstcalcenergy           = 100
nstenergy               = 10000
nstlog                  = 10000
;
cutoff-scheme           = Verlet
nstlist                 = 20
rlist                   = 1.2
vdwtype                 = Cut-off
vdw-modifier            = Force-switch
rvdw_switch             = 1.0
rvdw                    = 1.2
coulombtype             = PME
rcoulomb                = 1.2
;
tcoupl                  = Nose-Hoover
tc_grps                 = MEMB SOLV LIG
tau_t                   = 1.0 1.0 1.0
ref_t                   = 303.15 303.15 303.15
;
pcoupl                  = Parrinello-Rahman
pcoupltype              = semiisotropic
tau_p                   = 5.0
compressibility         = 4.5e-5  4.5e-5
ref_p                   = 1.0     1.0
;
constraints             = h-bonds
constraint_algorithm    = LINCS
continuation            = yes
;
nstcomm                 = 100
comm_mode               = linear
comm_grps               = MEMB SOLV LIG
