;;
;; Generated by CHARMM-GUI FF-Converter
;;
;; Correspondance:
;; jul316@lehigh.edu or wonpil@lehigh.edu
;;
;; The main GROMACS topology file
;;

; Include forcefield parameters
#include "toppar/forcefield.itp"
#include "toppar/POPG.itp"
#include "toppar/DOTAP.itp"
#include "toppar/POPE.itp"
#include "toppar/TOCL2.itp"
#include "toppar/SOD.itp"
#include "toppar/TIP3.itp"
#include "toppar/41M3_GROMACS_G54A7FF_allatom.itp"

[ system ]
; Name
Title

[ molecules ]
; Compound	#mols
POPG  	         192
DOTAP 	          48
POPE  	          48
TOCL2 	          32
SOD   	         208
TIP3  	       28141
41M3  	         100
