;----------------------------TITLE -----------------------------------------------------------------------------------------
;   None
;
; This file was generated at 02:30 on 2022-09-23 by
;
;                  Automatic Topology Builder  
;
;                   REVISION 2022-06-14 23:25:45
;---------------------------------------------------------------------------------------------------------------------------
; Authors     : Martin Stroet, Bertrand Caron, Alpeshkumar K. Malde, Thomas Lee, Alan E. Mark
;
; Institute   : Molecular Dynamics group, 
;               School of Chemistry and Molecular Biosciences (SCMB),
;               The University of Queensland, QLD 4072, Australia
; URL         : https://atb.uq.edu.au
; Citations   : 1. Malde AK, Zuo L, Breeze M, Stroet M, Poger D, Nair PC, Oostenbrink C, Mark AE.
;                  An Automated force field Topology Builder (ATB) and repository: version 1.0.
;                  Journal of Chemical Theory and Computation, 2011, 7, 4026-4037.
;               2. Stroet M, Caron B, Visscher K, Geerke D, Malde AK, Mark AE.
;                  Automated Topology Builder version 3.0: Prediction of solvation free enthalpies in water and hexane.
;                  DOI:10.1021/acs.jctc.8b00768
;
; Disclaimer  : 
;      While every effort has been made to ensure the accuracy and validity of parameters provided below
;      the assignment of parameters is being based on an automated procedure combining data provided by a
;      given user as well as calculations performed using third party software. They are provided as a guide.
;      The authors of the ATB cannot guarantee that the parameters are complete or that the parameters provided
;      are appropriate for use in any specific application. Users are advised to treat these parameters with discretion
;      and to perform additional validation tests for their specific application if required. Neither the authors
;      of the ATB or The University of Queensland except any responsibly for how the parameters may be used.
;
; Release notes and warnings: 
;  (1) The topology is based on a set of atomic coordinates and other data provided by the user after
;      after quantum mechanical optimization of the structure using different levels of theory depending on
;      the nature of the molecule.
;  (2) In some cases the automatic bond, bond angle and dihedral type assignment is ambiguous.
;      In these cases alternative type codes are provided at the end of the line.
;  (3) While bonded parameters are taken where possible from the nominated force field non-standard bond, angle and dihedral
;      type code may be incorporated in cases where an exact match could not be found. These are marked as "non-standard"
;      or "uncertain" in comments.
;  (4) In some cases it is not possible to assign an appropriate parameter automatically. "%%" is used as a place holder
;      for those fields that could not be determined automatically. The parameters in these fields must be assigned manually
;      before the file can be used.
;---------------------------------------------------------------------------------------------------------------------------
; Input Structure : 41M3
; Output          : ALL ATOM topology
;	Use in conjunction with the corresponding all atom PDB file.
;---------------------------------------------------------------------------------------------------------------------------
; Citing this topology file
; ATB molid: 1198081
; ATB Topology Hash: 8ad23
;---------------------------------------------------------------------------------------------------------------------------
; Initial Guess Topology Generation:
; The topology was generated from AM1 optimized geometry and MOPAC charges.
; Bonded and van der Waals parameters were taken from the GROMOS 54A7 parameter set.
;---------------------------------------------------------------------------------------------------------------------------
;
;
[ moleculetype ]
; Name   nrexcl
41M3     3
[ atoms ]
;  nr  type  resnr  resid  atom  cgnr  charge    mass
    1    HCATB    1    41M3    H43    1    0.072   1.0080
    2     CATB    1    41M3    C23    2   -0.211  12.0110
    3    HCATB    1    41M3    H41    3    0.072   1.0080
    4    HCATB    1    41M3    H42    4    0.072   1.0080
    5     CATB    1    41M3    C22    5   -0.158  12.0110
    6    HCATB    1    41M3    H39    6    0.078   1.0080
    7    HCATB    1    41M3    H40    7    0.078   1.0080
    8     CATB    1    41M3    C21    8   -0.158  12.0110
    9    HCATB    1    41M3    H37    9    0.079   1.0080
   10    HCATB    1    41M3    H38   10    0.079   1.0080
   11     CATB    1    41M3    C20   11   -0.157  12.0110
   12    HCATB    1    41M3    H35   12    0.083   1.0080
   13    HCATB    1    41M3    H36   13    0.083   1.0080
   14     CATB    1    41M3    C19   14   -0.138  12.0110
   15    HCATB    1    41M3    H33   15    0.092   1.0080
   16    HCATB    1    41M3    H34   16    0.092   1.0080
   17     CATB    1    41M3    C18   17   -0.134  12.0110
   18    HCATB    1    41M3    H32   18    0.124   1.0080
   19     CATB    1    41M3    C17   19   -0.159  12.0110
   20    HCATB    1    41M3    H31   20    0.143   1.0080
   21     CATB    1    41M3    C16   21   -0.044  12.0110
   22    HCATB    1    41M3    H30   22    0.093   1.0080
   23    NOATB    1    41M3     N3   23   -0.188  14.0067
   24     CATB    1    41M3    C15   24   -0.095  12.0110
   25    HCATB    1    41M3    H28   25    0.089   1.0080
   26    HCATB    1    41M3    H29   26    0.089   1.0080
   27     CATB    1    41M3    C14   27   -0.150  12.0110
   28    HCATB    1    41M3    H26   28    0.091   1.0080
   29    HCATB    1    41M3    H27   29    0.091   1.0080
   30     CATB    1    41M3    C13   30   -0.070  12.0110
   31    HCATB    1    41M3    H24   31    0.066   1.0080
   32    HCATB    1    41M3    H25   32    0.066   1.0080
   33    NOATB    1    41M3     N2   33   -0.307  14.0067
   34    HSATB    1    41M3    H23   34    0.158   1.0080
   35     CATB    1    41M3    C12   35   -0.081  12.0110
   36    HCATB    1    41M3    H21   36    0.075   1.0080
   37    HCATB    1    41M3    H22   37    0.075   1.0080
   38     CATB    1    41M3    C11   38   -0.162  12.0110
   39    HCATB    1    41M3    H19   39    0.083   1.0080
   40    HCATB    1    41M3    H20   40    0.083   1.0080
   41     CATB    1    41M3    C10   41   -0.152  12.0110
   42    HCATB    1    41M3    H17   42    0.091   1.0080
   43    HCATB    1    41M3    H18   43    0.091   1.0080
   44     CATB    1    41M3     C9   44   -0.098  12.0110
   45    HCATB    1    41M3    H15   45    0.080   1.0080
   46    HCATB    1    41M3    H16   46    0.080   1.0080
   47    NOATB    1    41M3     N1   47   -0.188  14.0067
   48     CATB    1    41M3     C8   48   -0.039  12.0110
   49    HCATB    1    41M3    H14   49    0.102   1.0080
   50     CATB    1    41M3     C7   50   -0.154  12.0110
   51    HCATB    1    41M3    H13   51    0.139   1.0080
   52     CATB    1    41M3     C6   52   -0.126  12.0110
   53    HCATB    1    41M3    H12   53    0.121   1.0080
   54     CATB    1    41M3     C5   54   -0.137  12.0110
   55    HCATB    1    41M3    H10   55    0.089   1.0080
   56    HCATB    1    41M3    H11   56    0.089   1.0080
   57     CATB    1    41M3     C4   57   -0.161  12.0110
   58    HCATB    1    41M3     H8   58    0.090   1.0080
   59    HCATB    1    41M3     H9   59    0.090   1.0080
   60     CATB    1    41M3     C3   60   -0.155  12.0110
   61    HCATB    1    41M3     H6   61    0.075   1.0080
   62    HCATB    1    41M3     H7   62    0.075   1.0080
   63     CATB    1    41M3     C2   63   -0.165  12.0110
   64    HCATB    1    41M3     H4   64    0.084   1.0080
   65    HCATB    1    41M3     H5   65    0.084   1.0080
   66     CATB    1    41M3     C1   66   -0.209  12.0110
   67    HCATB    1    41M3     H1   67    0.070   1.0080
   68    HCATB    1    41M3     H2   68    0.070   1.0080
   69    HCATB    1    41M3     H3   69    0.070   1.0080
; total charge of the molecule:   0.000
[ bonds ]
;  ai   aj  funct   c0         c1
    1    2    2   0.1120   3.7000e+07
    2    3    2   0.1120   3.7000e+07
    2    4    2   0.1120   3.7000e+07
    2    5    2   0.1510   3.7279e+06
    5    6    2   0.1120   3.7000e+07
    5    7    2   0.1120   3.7000e+07
    5    8    2   0.1520   5.4300e+06
    8    9    2   0.1120   3.7000e+07
    8   10    2   0.1120   3.7000e+07
    8   11    2   0.1520   5.4300e+06
   11   12    2   0.1120   3.7000e+07
   11   13    2   0.1120   3.7000e+07
   11   14    2   0.1520   5.4300e+06
   14   15    2   0.1120   3.7000e+07
   14   16    2   0.1120   3.7000e+07
   14   17    2   0.1480   5.7300e+06
   17   18    2   0.1100   1.2100e+07
   17   19    2   0.1330   1.1800e+07
   19   20    2   0.1100   1.2100e+07
   19   21    2   0.1470   8.7100e+06
   21   22    2   0.1120   3.7000e+07
   21   23    2   0.1290   1.2920e+07
   23   24    2   0.1440   3.3758e+05
   24   25    2   0.1130   7.0483e+06
   24   26    2   0.1130   7.0483e+06
   24   27    2   0.1530   7.1500e+06
   27   28    2   0.1120   3.7000e+07
   27   29    2   0.1120   3.7000e+07
   27   30    2   0.1530   7.1500e+06
   30   31    2   0.1130   7.0483e+06
   30   32    2   0.1130   7.0483e+06
   30   33    2   0.1450   5.2319e+06
   33   34    2   0.1000   1.8700e+07
   33   35    2   0.1450   5.2319e+06
   35   36    2   0.1130   7.0483e+06
   35   37    2   0.1130   7.0483e+06
   35   38    2   0.1530   7.1500e+06
   38   39    2   0.1120   3.7000e+07
   38   40    2   0.1120   3.7000e+07
   38   41    2   0.1520   5.4300e+06
   41   42    2   0.1120   3.7000e+07
   41   43    2   0.1120   3.7000e+07
   41   44    2   0.1530   7.1500e+06
   44   45    2   0.1130   7.0483e+06
   44   46    2   0.1130   7.0483e+06
   44   47    2   0.1440   3.3758e+05
   47   48    2   0.1290   1.2920e+07
   48   49    2   0.1120   3.7000e+07
   48   50    2   0.1470   8.7100e+06
   50   51    2   0.1110   4.8697e+06
   50   52    2   0.1330   1.1800e+07
   52   53    2   0.1110   4.8697e+06
   52   54    2   0.1480   5.7300e+06
   54   55    2   0.1120   3.7000e+07
   54   56    2   0.1120   3.7000e+07
   54   57    2   0.1520   5.4300e+06
   57   58    2   0.1120   3.7000e+07
   57   59    2   0.1120   3.7000e+07
   57   60    2   0.1520   5.4300e+06
   60   61    2   0.1120   3.7000e+07
   60   62    2   0.1120   3.7000e+07
   60   63    2   0.1520   5.4300e+06
   63   64    2   0.1120   3.7000e+07
   63   65    2   0.1120   3.7000e+07
   63   66    2   0.1510   3.7279e+06
   66   67    2   0.1120   3.7000e+07
   66   68    2   0.1120   3.7000e+07
   66   69    2   0.1120   3.7000e+07
[ pairs ]
;  ai   aj  funct  ;  all 1-4 pairs but the ones excluded in GROMOS itp
    1    6    1
    1    7    1
    1    8    1
    2    9    1
    2   10    1
    2   11    1
    3    6    1
    3    7    1
    3    8    1
    4    6    1
    4    7    1
    4    8    1
    5   12    1
    5   13    1
    5   14    1
    6    9    1
    6   10    1
    6   11    1
    7    9    1
    7   10    1
    7   11    1
    8   15    1
    8   16    1
    8   17    1
    9   12    1
    9   13    1
    9   14    1
   10   12    1
   10   13    1
   10   14    1
   11   18    1
   11   19    1
   12   15    1
   12   16    1
   12   17    1
   13   15    1
   13   16    1
   13   17    1
   14   20    1
   14   21    1
   15   18    1
   15   19    1
   16   18    1
   16   19    1
   17   22    1
   17   23    1
   18   20    1
   18   21    1
   19   24    1
   20   22    1
   20   23    1
   21   25    1
   21   26    1
   21   27    1
   22   24    1
   23   28    1
   23   29    1
   23   30    1
   24   31    1
   24   32    1
   24   33    1
   25   28    1
   25   29    1
   25   30    1
   26   28    1
   26   29    1
   26   30    1
   27   34    1
   27   35    1
   28   31    1
   28   32    1
   28   33    1
   29   31    1
   29   32    1
   29   33    1
   30   36    1
   30   37    1
   30   38    1
   31   34    1
   31   35    1
   32   34    1
   32   35    1
   33   39    1
   33   40    1
   33   41    1
   34   36    1
   34   37    1
   34   38    1
   35   42    1
   35   43    1
   35   44    1
   36   39    1
   36   40    1
   36   41    1
   37   39    1
   37   40    1
   37   41    1
   38   45    1
   38   46    1
   38   47    1
   39   42    1
   39   43    1
   39   44    1
   40   42    1
   40   43    1
   40   44    1
   41   48    1
   42   45    1
   42   46    1
   42   47    1
   43   45    1
   43   46    1
   43   47    1
   44   49    1
   44   50    1
   45   48    1
   46   48    1
   47   51    1
   47   52    1
   48   53    1
   48   54    1
   49   51    1
   49   52    1
   50   55    1
   50   56    1
   50   57    1
   51   53    1
   51   54    1
   52   58    1
   52   59    1
   52   60    1
   53   55    1
   53   56    1
   53   57    1
   54   61    1
   54   62    1
   54   63    1
   55   58    1
   55   59    1
   55   60    1
   56   58    1
   56   59    1
   56   60    1
   57   64    1
   57   65    1
   57   66    1
   58   61    1
   58   62    1
   58   63    1
   59   61    1
   59   62    1
   59   63    1
   60   67    1
   60   68    1
   60   69    1
   61   64    1
   61   65    1
   61   66    1
   62   64    1
   62   65    1
   62   66    1
   64   67    1
   64   68    1
   64   69    1
   65   67    1
   65   68    1
   65   69    1
[ angles ]
;  ai   aj   ak  funct   angle     fc
    1    2    3    2    108.53   443.00
    1    2    4    2    108.53   443.00
    1    2    5    2    110.30   524.00
    3    2    4    2    108.53   443.00
    3    2    5    2    110.30   524.00
    4    2    5    2    110.30   524.00
    2    5    6    2    109.60   450.00
    2    5    7    2    109.60   450.00
    2    5    8    2    111.00   530.00
    6    5    7    2    107.00  2726.16
    6    5    8    2    109.50   285.00
    7    5    8    2    109.50   285.00
    5    8    9    2    109.50   285.00
    5    8   10    2    109.50   285.00
    5    8   11    2    111.00   530.00
    9    8   10    2    107.00  2726.16
    9    8   11    2    109.50   285.00
   10    8   11    2    109.50   285.00
    8   11   12    2    109.60   450.00
    8   11   13    2    109.60   450.00
    8   11   14    2    111.00   530.00
   12   11   13    2    107.00  2726.16
   12   11   14    2    109.60   450.00
   13   11   14    2    109.60   450.00
   11   14   15    2    109.50   285.00
   11   14   16    2    109.50   285.00
   11   14   17    2    111.00   530.00
   15   14   16    2    106.75   503.00
   15   14   17    2    109.60   450.00
   16   14   17    2    109.60   450.00
   14   17   18    2    120.00   505.00
   14   17   19    2    120.00   560.00
   18   17   19    2    120.00   505.00
   17   19   20    2    120.00   505.00
   17   19   21    2    120.00   560.00
   20   19   21    2    120.00   505.00
   19   21   22    2    114.00  1559.41
   19   21   23    2    120.00   560.00
   22   21   23    2    120.00   505.00
   21   23   24    2    121.00   685.00
   23   24   25    2    106.00  1733.55
   23   24   26    2    106.00  1733.55
   23   24   27    2    111.00   530.00
   25   24   26    2    107.00  2726.16
   25   24   27    2    108.53   443.00
   26   24   27    2    108.53   443.00
   24   27   28    2    110.00   285.00
   24   27   29    2    110.00   285.00
   24   27   30    2    111.00   530.00
   28   27   29    2    107.57   484.00
   28   27   30    2    107.57   484.00
   29   27   30    2    107.57   484.00
   27   30   31    2    107.00  2726.16
   27   30   32    2    107.00  2726.16
   27   30   33    2    115.00   610.00
   31   30   32    2    107.57   484.00
   31   30   33    2    106.75   503.00
   32   30   33    2    106.75   503.00
   30   33   34    2    109.50   425.00
   30   33   35    2    116.00   620.00
   34   33   35    2    109.50   425.00
   33   35   36    2    112.00  4899.70
   33   35   37    2    112.00  4899.70
   33   35   38    2    111.00   530.00
   36   35   37    2    107.00  2726.16
   36   35   38    2    108.53   443.00
   37   35   38    2    108.53   443.00
   35   38   39    2    109.60   450.00
   35   38   40    2    109.60   450.00
   35   38   41    2    111.00   530.00
   39   38   40    2    107.00  2726.16
   39   38   41    2    110.00   285.00
   40   38   41    2    110.00   285.00
   38   41   42    2    108.00   465.00
   38   41   43    2    108.00   465.00
   38   41   44    2    111.00   530.00
   42   41   43    2    107.00  2726.16
   42   41   44    2    111.00   530.00
   43   41   44    2    111.00   530.00
   41   44   45    2    108.53   443.00
   41   44   46    2    108.53   443.00
   41   44   47    2    115.00   610.00
   45   44   46    2    107.00  2726.16
   45   44   47    2    114.00  1559.41
   46   44   47    2    114.00  1559.41
   44   47   48    2    120.00   560.00
   47   48   49    2    120.00   505.00
   47   48   50    2    120.00   560.00
   49   48   50    2    115.00    50.00
   48   50   51    2    120.00   505.00
   48   50   52    2    126.00   640.00
   51   50   52    2    120.00   505.00
   50   52   53    2    120.00   505.00
   50   52   54    2    126.00   640.00
   53   52   54    2    114.00  1559.41
   52   54   55    2    108.00   465.00
   52   54   56    2    108.00   465.00
   52   54   57    2    111.00   530.00
   55   54   56    2    106.75   503.00
   55   54   57    2    109.50   285.00
   56   54   57    2    109.50   285.00
   54   57   58    2    109.50   285.00
   54   57   59    2    109.50   285.00
   54   57   60    2    111.00   530.00
   58   57   59    2    107.57   484.00
   58   57   60    2    109.60   450.00
   59   57   60    2    109.60   450.00
   57   60   61    2    108.53   443.00
   57   60   62    2    108.53   443.00
   57   60   63    2    111.00   530.00
   61   60   62    2    107.00  2726.16
   61   60   63    2    109.50   285.00
   62   60   63    2    109.50   285.00
   60   63   64    2    109.50   285.00
   60   63   65    2    109.50   285.00
   60   63   66    2    111.00   530.00
   64   63   65    2    107.00  2726.16
   64   63   66    2    109.50   285.00
   65   63   66    2    109.50   285.00
   63   66   67    2    110.30   524.00
   63   66   68    2    110.30   524.00
   63   66   69    2    110.30   524.00
   67   66   68    2    108.53   443.00
   67   66   69    2    108.53   443.00
   68   66   69    2    108.53   443.00
[ dihedrals ]
; GROMOS improper dihedrals
;  ai   aj   ak   al  funct   angle     fc
   52   50   53   54    2      0.00   167.36
   50   48   51   52    2      0.00   167.36
   48   47   49   50    2      0.00   167.36
   21   19   22   23    2      0.00   167.36
   19   17   20   21    2      0.00   167.36
   17   14   18   19    2      0.00   167.36
[ dihedrals ]
;  ai   aj   ak   al  funct    ph0      cp     mult
    2    5    8   11    1      0.00     5.92    3
    3    2    5    8    1      0.00     5.92    3
    5    8   11   14    1      0.00     5.92    3
    8   11   14   17    1      0.00     5.92    3
   11   14   17   19    1      0.00     1.00    6
   14   17   19   21    1    180.00    41.80    2
   17   19   21   23    1    180.00    41.80    2
   19   21   23   24    1    180.00    33.50    2
   21   23   24   27    1    180.00     1.00    3
   23   24   27   30    1      0.00     5.92    3
   24   27   30   33    1      0.00     5.92    3
   27   30   33   35    1    180.00     1.00    6
   30   33   35   38    1    180.00     1.00    6
   33   35   38   41    1      0.00     5.92    3
   35   38   41   44    1      0.00     5.92    3
   38   41   44   47    1    180.00     1.00    3
   41   44   47   48    1    180.00     1.00    3
   44   47   48   50    1    180.00    33.50    2
   47   48   50   52    1    180.00    41.80    2
   48   50   52   54    1    180.00    41.80    2
   50   52   54   57    1    180.00     1.00    6
   52   54   57   60    1      0.00     5.92    3
   54   57   60   63    1      0.00     5.92    3
   57   60   63   66    1      0.00     5.92    3
   60   63   66   67    1      0.00     5.92    3
[ exclusions ]
;  ai   aj  funct  ;  GROMOS 1-4 exclusions
